# vtk DataFile Version 2.0
3D Data
ASCII
DATASET POLYDATA
POINTS 567 double
7495045.54123	922381.251523	22200
7495064.42407	933614.873808	21400
7472456.8861	932354.316205	5000
7475696.62548	931623.219477	5000
7502122.34837	919277.295879	9000
7474511.16567	926443.509935	5000
7479116.9594	928425.948936	100
7475045.80339	931090.075298	0
7513469.72989	918245.324867	16700
7495688.17001	923223.402237	20700
7479934.03994	934832.501209	100
7466228.4022	932793.649663	5000
7484878.50226	932707.832627	24700
7476220.89865	936579.191337	200
7465214.65547	917542.585305	100
7506546.80326	919810.486524	20100
7474400.80599	930351.297381	5000
7453894.72696	940868.632394	100
7468323.80552	925446.381929	5000
7475784.05233	928537.807588	0
7513694.30429	918148.245145	0
7514846.89528	920655.665424	0
7484370.63836	931045.568457	5000
7513278.6409	917105.362174	15500
7502091.05709	928452.053778	17300
7501741.09179	929060.897868	18200
7482647.93163	921214.648946	0
7517553.48874	914950.675156	100
7466936.90139	935180.086312	0
7501452.88305	931424.184956	23500
7478816.61033	931197.130309	5000
7519700.90432	921716.654673	5000
7510422.42427	920122.452739	16500
7522177.00389	920442.157789	5000
7501566.68203	931324.278667	25200
7505134.0897	914616.557551	10500
7498253.007	922778.910835	14000
7507715.91897	921698.714539	15200
7506260.1613	922174.432344	16200
7497604.66368	922142.638327	15600
7497937.35061	922151.802125	15700
7462431.53636	925794.659114	0
7503413.96309	924777.010598	15200
7511365.60314	918085.127766	19600
7529307.53678	919396.140321	100
7509964.79499	920625.697167	23000
7501879.11899	932054.803398	45800
7504910.61341	906362.813861	5000
7501505.82466	921528.392426	16200
7483020.14021	923799.132554	5000
7494971.52402	921039.608509	14800
7475021.56751	935824.158102	5000
7524242.54527	913787.98343	0
7508423.54433	920171.077297	17900
7503541.93789	924161.90485	26300
7511329.92692	915299.168485	8800
7508409.47522	920686.362405	14500
7491512.47779	933617.238588	26500
7507586.9207	918291.965951	18000
7507586.9207	918291.965951	18000
7497714.52557	934102.229014	19400
7511266.13862	913543.99876	5000
7508260.66361	918000.884019	20300
7510606.13025	917445.663467	18900
7514589.80105	917862.987855	100
7487971.83958	929293.167894	24600
7506602.89791	917749.62824	17900
7486623.60583	929873.241515	21000
7507439.5647	919628.58973	17700
7507561.68916	919219.412262	17900
7497416.91488	924920.225087	23800
7497208.45328	940169.835973	25400
7493993.28554	920291.428216	26100
7495560.18252	923838.181076	26900
7480614.41745	930424.409815	34400
7493272.04463	930266.495579	27000
7506595.79689	926102.472845	16500
7506214.12526	919801.408433	14300
7488269.20018	918589.046708	0
7499123.96645	911156.342518	0
7490717.12612	926382.581172	25300
7506103.23258	919798.382148	19800
7515903.73611	918517.619659	0
7507491.30662	921795.69077	17600
7495841.45779	925700.982806	25100
7499242.09534	927135.519384	23500
7507314.61562	920140.811835	17100
7488298.4175	937337.806638	24500
7486786.90528	935852.298221	24300
7508089.13199	916139.943375	6500
7494871.96643	924643.520902	18400
7488789.39101	931788.590518	27100
7490744.8884	933286.353854	24700
7486509.93763	933887.213533	26100
7502266.94347	918044.158682	12700
7495568.01301	927548.412177	25900
7493217.0629	924288.479453	16200
7493921.74655	926884.145481	18100
7500018.20328	919116.742466	12600
7508068.34453	920986.438352	17300
7485883.45328	924599.709219	32000
7505813.75293	922265.299692	16400
7495362.09518	934860.110571	20700
7497822.51524	934208.370988	19700
7495033.62285	926812.106836	25800
7490869.78056	928859.498924	27600
7496105.25537	928181.788611	26900
7495922.15371	930753.264996	23300
7495881.46833	924259.296992	16700
7494425.51582	924734.180901	18200
7490082.36603	933164.533584	24900
7498090.86724	924629.696761	25300
7497542.08307	924408.357756	23600
7497559.18392	923790.429874	26200
7486885.95579	928438.59356	16400
7494559.25344	923913.514724	26100
7491654.60236	966499.48053	0
7516450.15283	914714.697972	0
7491588.28567	934855.892665	24300
7503361.38014	930652.873041	18400
7488657.6658	936420.862579	24500
7482534.66685	929243.0291	25400
7506911.38587	922707.935426	14500
7496822.71735	922327.213801	26500
7507199.23281	916219.005241	11500
7516431.41888	923588.119366	1700
7489495.67028	934281.193427	22900
7490152.33461	934608.963538	23200
7489556.2793	928204.50393	17600
7492454.9057	919734.021948	19900
7497530.59037	920800.779821	23600
7531115.61249	930393.691919	44200
7506831.58745	921571.35977	18900
7495650.87086	936414.379289	23400
7488586.99835	927147.197601	15800
7487875.40575	928775.407759	15400
7496723.17226	921912.235581	24700
7493459.08287	935424.376023	20300
7497720.35876	933896.229213	21400
7492247.5148	923231.269604	18500
7496054.96183	921996.882958	23400
7491669.8689	935888.655528	24500
7484542.18994	936715.108911	27900
7495269.52679	918265.583789	16500
7496487.18999	922421.020621	25500
7487455.30447	935768.378636	25700
7499802.04509	918904.687653	26000
7498420.57204	920722.146871	24400
7490799.97763	919379.530346	18500
7485606.37882	906262.506471	5200
7495949.74018	921787.877437	23600
7502956.11982	925279.872664	11100
7488855.92202	937250.750829	25000
7508225.06086	915215.485179	16800
7491121.31843	931751.483301	26800
7490692.23331	931224.200048	28200
7488838.19547	922106.763121	0
7496606.60254	922115.139997	25200
7494257.89495	922771.68517	25700
7492643.21528	940656.93821	31200
7497823.6179	922251.735439	3100
7487202.77572	925048.439285	16100
7496589.0965	926752.399602	25600
7496589.9789	953760.544383	10800
7495878.48606	920343.196302	24500
7499051.81097	925996.334692	24800
7492046.30572	930438.087205	25800
7492370.3193	930756.334814	26100
7488071.42545	933622.571563	25000
7496393.32196	921800.094282	28000
7488955.48749	929835.921665	19100
7496254.03163	922826.814506	24700
7487003.24088	932150.08507	27500
7488949.91089	933956.598984	25700
7489282.63428	933966.055686	26700
7496603.04421	918198.957584	19900
7496663.78768	943659.157679	15100
7494763.59342	936389.087922	19100
7493327.92018	920273.148305	22600
7498816.00482	922485.217133	28800
7489437.23794	916458.009081	21700
7490721.25457	930194.709696	29100
7491959.02688	933526.862461	28800
7491378.1805	934437.75044	26400
7496472.98134	922935.916842	25300
7494299.09839	929264.84538	27800
7488009.85293	935784.215481	24500
7496507.05285	921700.169751	25000
7498176.14787	921539.972404	26500
7502111.65141	923710.023121	27300
7564148.71024	939894.126971	35100
7515327.43396	915200.420148	11100
7494618.70186	925770.032243	25700
7489367.18362	934895.705217	26300
7502466.27048	918874.316697	21200
7484262.64408	930939.524974	20000
7490038.49676	934708.756855	25900
7489708.70119	934596.340511	25600
7497666.90734	919876.963144	22100
7498093.54148	920507.040353	20000
7491587.83155	923006.954036	22500
7494419.38792	932875.185499	24600
7495060.11921	945365.073117	21300
7494024.02575	927196.14192	26200
7488673.09575	924059.313735	16400
7490478.07425	926994.050024	23400
7491154.98087	926600.854898	23600
7487840.01428	937839.780392	23600
7510641.13354	936221.35262	9500
7491465.65467	935264.57324	22400
7491655.18011	936403.462887	20100
7502293.71825	933097.577027	22900
7509142.19448	918231.082734	19000
7312736.90413	1196953.39461	38300
7358672.54077	1199397.46532	29000
7494209.43358	924522.092787	23800
7493433.14587	924500.553007	24000
7496885.25135	924080.976863	27000
7493910.6406	919258.794579	19800
7496922.75991	953770.39954	11000
7683273.38264	978811.321394	17100
7490178.32551	929767.316409	18200
7494237.20037	927511.241931	23500
7505071.39275	921007.55572	22900
7507200.90919	920240.833211	17000
7492917.89282	927062.212315	24400
7499829.8035	929935.275897	21200
7500564.22244	919440.89837	20000
7495494.80594	922187.546135	19700
7495045.54123	922381.251523	19900
7496250.65592	926949.094748	25900
7496560.79431	919743.597058	25600
7490365.32874	931008.914707	26100
7486011.53571	923985.335974	16300
7489241.6064	935407.266868	25100
7488631.15102	937347.339831	22200
7497331.69155	923990.268637	24500
7499361.28832	918789.578577	19500
7489358.46577	931289.569335	27800
7492989.55275	924488.24172	26900
7494772.37209	920209.783818	27400
7498960.90445	921252.333191	23400
7513658.57291	915361.86597	0
7492488.65852	926535.040146	23500
7493697.07214	926980.921943	24700
7495304.20848	921048.759043	12500
7493381.60179	926353.860104	21700
7492920.76759	926959.252385	23700
7499469.63162	926935.688421	27900
7483991.24661	932682.636202	15700
7493913.81956	923174.342122	17400
7489136.65542	931283.304122	27300
7493398.83216	941400.157215	21600
7493950.43994	925854.484594	24700
7483728.47918	930203.526758	13200
7488307.26297	937028.986812	23000
7489341.34366	923974.864013	14900
7491877.80076	920542.363454	18300
7495787.67667	923638.369122	17500
7487931.23506	934648.761824	25200
7493377.44915	934391.503503	15100
7491684.54024	935373.850526	25600
7499651.7042	920343.623476	26000
7490904.40388	927624.128209	19600
7493401.67355	925633.126023	23200
7489422.76287	932939.774827	25200
7496456.92049	915412.642883	12900
7479252.45427	923591.246926	10000
7492075.77193	933324.085033	24300
7489930.42107	930687.56577	27200
7491633.0147	925377.837116	18500
7495739.28967	921369.876107	25600
7489008.64928	923965.625435	14100
7491778.23	920127.532409	18900
7492942.58783	934070.000977	19100
7496245.49958	923135.748562	24100
7496691.93072	923045.021756	25300
7496868.05216	920679.526707	23000
7488920.61619	934986.011091	25500
7508379.94412	917694.732446	21700
7493726.15175	921932.682018	28500
7496541.02407	920464.435805	27800
7494996.98659	920112.906255	23200
7504045.09075	922010.511655	12100
7488903.20778	931688.789367	26700
7492500.14104	926123.214845	25200
7492938.00153	926341.494745	23500
7495836.00797	921887.796917	11500
7491734.29229	933623.531101	23700
7496993.29792	924187.030886	23200
7486763.91918	932761.347055	27300
7489180.50067	933654.077267	27600
7489419.84394	933042.717689	25100
7495275.8535	922078.459379	26200
7495250.27445	923005.197489	23200
7488343.26034	923947.144796	22200
7488464.56959	927555.815207	20100
7489576.46751	927483.936441	23300
7487732.85138	933818.98183	27900
7496126.06425	923441.617295	25700
7497728.42235	929670.206822	28500
7492187.80652	921375.104195	21900
7494482.53222	922674.846878	27600
7491640.32026	929087.191751	20200
7485292.87881	933749.581001	20300
7486086.78888	933154.145256	21100
7491964.865	933320.941493	25100
7492122.37485	931676.718738	24700
7491451.26261	923930.401309	13600
7495890.24772	931886.097336	23200
7490158.19132	934403.064566	24400
7497996.76613	919989.063999	22100
7520353.27989	913993.734213	7600
7488191.10362	933316.91757	27000
7495892.61059	919828.333982	19000
7493097.59311	924594.278206	25600
7488179.40806	933728.657966	26700
7488946.98456	934059.539773	27100
7499068.96615	925378.335566	29900
7499401.66199	925387.563648	20300
7499068.96615	925378.335566	16500
7505789.00915	950524.941652	11700
7496023.2486	919110.565581	24300
7492459.90341	927564.609858	15700
7494918.46253	934847.509402	15000
7497214.86421	920173.753033	23600
7496978.94648	920682.571836	23000
7496740.17758	921294.356874	23700
7499063.25054	925584.334906	27200
7506628.04993	916822.253861	17400
7496645.13745	916654.338479	17100
7488867.70974	936838.976574	25600
7495559.38333	927857.347685	25500
7491843.34785	925795.814334	26600
7490096.55654	936565.022533	23200
7490922.83477	934836.958622	20700
7496899.49632	923566.060603	24300
7495514.66524	921466.7438	24100
7498827.35094	922073.238833	23300
7495249.8166	918986.350637	17000
7507091.13024	916112.962527	6300
7491693.33467	935064.968654	24500
7491287.74185	933713.901756	24400
7496595.24576	922527.058694	23500
7490811.00056	938749.317899	14500
7498389.43863	921855.044678	24400
7489370.11513	934792.760668	23800
7486260.95329	926979.081977	19200
7495464.04302	931255.693409	27800
7492275.97998	922201.761009	27500
7491042.36758	930615.881044	28100
7492749.57845	936949.967754	26700
7499597.94885	922300.603554	26200
7500399.70627	921394.931157	27000
7495011.39584	923616.889269	23800
7492974.34072	936853.334038	25500
7624758.00826	963493.116505	8600
7500246.29851	922936.948147	25100
7490158.19132	934403.064566	28600
7488827.29318	934365.207193	26000
7493953.62085	921732.876229	25400
7492974.04246	929021.579615	28000
7498571.48585	923303.054627	24100
7489781.46889	935937.819612	22700
7496535.36916	920670.390551	21000
7491798.38127	935274.047893	24300
7494252.20407	922977.614104	23800
7491369.39772	934746.623854	21000
7492685.61798	931383.484556	24700
7496566.43668	919537.643949	17900
7496663.21928	920055.568418	24500
7495497.64507	922084.574099	23400
7490817.65715	930712.580033	16000
7493367.87652	922850.128282	18900
7493614.87484	925948.187399	25000
7494738.19148	925464.205371	24800
7645044.70035	952621.789614	9700
7483000.0767	924519.361915	10600
7483861.43078	925470.1635	12300
7489514.45383	925730.913853	21500
7496018.01422	923335.574133	18000
7495597.18053	922499.52296	18600
7493302.43184	921199.750867	20000
7484023.23856	915589.437498	16400
7497942.81845	925965.521038	24000
7494469.29098	915049.612657	24500
7494772.47616	932163.747142	22900
7494895.00564	931754.963935	22200
7486358.20202	931410.785349	26700
7485963.37656	937476.889481	24800
7478328.21512	936639.766027	27500
7487055.61413	930297.439302	26100
7482070.57548	941587.547916	24400
7499575.23988	923124.60504	24300
7497451.1345	923684.376113	25800
7498724.97721	896822.215079	27800
7489809.14063	915026.107644	13100
7501838.50881	921537.52702	25000
7494451.2077	923807.476053	18100
7616840.62203	968565.99463	11500
7488371.93757	934764.334006	25500
7495807.05436	926936.727875	27200
7495508.76013	925691.733299	23400
7491252.29068	923100.690158	22100
7495750.58161	924977.059858	26700
7492305.9367	936937.291289	22900
7490307.09872	933067.874537	25600
7488500.42545	934149.863851	27400
7496501.12719	925925.443915	27900
7480333.3476	920635.844167	0
7491766.81201	924557.324484	17300
7493327.96098	924291.555708	25600
7496819.878	922430.195021	26900
7496020.43006	919213.537978	23000
7497698.5259	922763.616635	25200
7489212.21697	936436.714709	23500
7486819.21591	934720.09346	24700
7498126.02647	935247.831581	22100
7492289.81337	925705.215537	26400
7507126.53901	918898.189779	17600
7515862.45765	915937.035321	5000
7494761.06815	924640.444202	25400
7488431.26466	924773.640069	22100
7493869.95174	944299.71252	22400
7493642.67644	916881.712703	3300
7491541.33018	936503.257402	20900
7484609.87048	922504.639383	5500
7490199.91988	925028.884351	20600
7488632.46624	941159.476633	20000
7496450.57997	931695.756505	24000
7490002.77362	928114.000507	15300
7496520.23275	917166.18911	20000
7489600.61022	930575.241791	27100
7489086.66047	929118.487268	24600
7491091.80697	936696.503392	20800
7491220.89635	924233.084788	27400
7488678.24929	935700.274441	26200
7496407.49279	921285.206836	28600
7497115.59495	923778.161695	25200
7488056.79327	934137.244933	26000
7492144.46272	926937.576463	25000
7488585.0373	931164.703535	28000
7499474.99266	918689.611481	29900
7492416.84715	936940.460605	21500
7483853.55124	921762.857124	6100
7486220.58364	936248.148897	19300
7496899.11645	919546.75536	17100
7497695.08854	918847.12535	18600
7477941.03366	930760.50286	17000
7474981.35319	933352.653688	19400
7433542.95776	945813.406785	16600
7494297.45754	925348.905796	26200
7489485.72074	926760.274162	17000
7500339.62147	927578.441188	13700
7486918.38551	935134.966878	24700
7495983.72565	920552.187397	19900
7490085.28506	933061.586116	26100
7487353.21152	935456.415611	25300
7491940.79355	938060.397046	22600
7474997.91303	936646.949061	28600
7493177.35163	921711.475645	27500
7494019.01965	923383.336008	23700
7495864.33767	924877.160134	24400
7490668.96605	932047.799039	25600
7503935.91749	917883.378394	26500
7483145.46902	919272.078759	6100
7675284.55285	962939.582624	14200
7486051.66438	930475.112395	20600
7497416.91488	924920.225087	28900
7487324.29143	932571.222695	27300
7496605.8553	918095.982344	23200
7496136.95926	919010.627428	24800
7492463.60809	923443.315105	25400
7484603.19872	926726.679207	12400
7488147.23124	930946.307707	26800
7490604.55171	930397.482822	26800
7501739.09227	925143.075367	25000
7488602.54731	934461.834687	28100
7498791.17632	915269.800406	5000
7497590.4704	922657.570667	28100
7489661.74045	936243.497682	24700
7494725.36857	929895.13786	24700
7495265.41787	930425.606951	19800
7502360.99664	918665.262863	30200
7436012.91935	959545.732842	9000
7499241.95514	919095.531952	20500
7495537.35599	924661.978387	26800
7490047.12966	930484.80415	28500
7488789.39101	931788.590518	27800
7485993.99208	916569.990335	9000
7490774.04825	932256.837322	25400
7501966.8109	932882.138954	17900
7502910.64167	922907.255161	23100
7480159.14495	930823.366134	15100
7500277.49005	921803.900195	21300
7493552.5146	932129.294883	25400
7512200.39526	924091.035901	11900
7487531.12173	929177.761359	28400
7493763.00845	920594.211135	18400
7493964.96756	921321.032118	18100
7496598.086	922424.078883	25500
7487537.34683	932886.301324	26700
7495520.33306	921260.801097	24800
7494544.98416	924428.354045	25400
7493629.20037	925433.371214	26300
7497860.44547	920912.901367	25100
7487536.91083	928971.909708	27600
7497428.33256	924508.273958	21900
7491458.91124	927639.645111	19200
7653272.34935	952119.812598	19600
7481865.22932	925414.383763	0
7493413.12779	925221.280003	26700
7487629.15654	925678.333535	21800
7487190.01441	933391.500854	23000
7496282.42652	921797.040263	22900
7490034.47053	926981.650125	15900
7487998.48112	932281.290237	27400
7492947.84281	937780.077805	23500
7494647.31262	924740.336447	18700
7482852.38396	917822.559861	7500
7491179.75599	933607.79883	23700
7489249.52545	927268.751231	16300
7491897.70895	923839.755141	27700
7498388.06445	929894.858904	23900
7495784.82739	923741.344782	25300
7487254.0484	935041.527287	24000
7493296.89874	913266.395723	29400
7491165.14144	934122.57705	24400
7493942.26299	922144.7218	22500
7495934.87973	918283.760642	22000
7495350.27629	907036.885207	9800
7504755.62792	920380.249607	21800
7498204.43553	920510.082575	30200
7499147.93857	918474.543512	15100
7496936.45179	922227.28905	24800
7498653.66006	920316.26732	21900
7494323.18794	924422.202744	25700
7499545.06739	916114.761463	17600
7494692.5332	919074.136804	21900
7496535.36916	920670.390551	25500
7494092.8613	920706.317891	20400
7489504.44984	933972.359494	24600
7486570.96693	935640.106214	25100
7496091.84711	924677.356072	24300
7492712.00189	934372.6047	24700
7488535.03827	928999.967731	18500
7490505.54377	933897.768867	25500
7493010.79491	907386.700689	3300
7491511.89227	937532.872624	20400
7500615.04314	909341.096256	100
7491181.22929	921656.416706	26400
7496356.41846	906754.530124	6800
7493819.99761	922553.505984	25400
7493035.1864	922840.930669	18100
7490230.98222	935744.578304	22700
7494303.18028	925142.971141	26100
7551262.85041	915849.581127	100
7512178.10443	916766.147354	7300
7499179.86418	921361.421905	21000
7500644.65631	932535.557157	18100
7493609.13976	926154.114518	24800
7489019.78798	935400.941464	24900
7494053.15896	922147.781516	24900
7494718.53463	922166.137114	26000
7485364.43656	939004.79764	23200
7479262.60298	927194.654325	27300
7496151.66128	922514.821875	25900
POINT_DATA 567
SCALARS Location double
LOOKUP_TABLE default
1.000000000000000000e+00
2.000000000000000000e+00
3.000000000000000000e+00
4.000000000000000000e+00
5.000000000000000000e+00
6.000000000000000000e+00
7.000000000000000000e+00
8.000000000000000000e+00
9.000000000000000000e+00
1.000000000000000000e+01
1.100000000000000000e+01
1.200000000000000000e+01
1.300000000000000000e+01
1.400000000000000000e+01
1.500000000000000000e+01
1.600000000000000000e+01
1.700000000000000000e+01
1.800000000000000000e+01
1.900000000000000000e+01
2.000000000000000000e+01
2.100000000000000000e+01
2.200000000000000000e+01
2.300000000000000000e+01
2.400000000000000000e+01
2.500000000000000000e+01
2.600000000000000000e+01
2.700000000000000000e+01
2.800000000000000000e+01
2.900000000000000000e+01
3.000000000000000000e+01
3.100000000000000000e+01
3.200000000000000000e+01
3.300000000000000000e+01
3.400000000000000000e+01
3.500000000000000000e+01
3.600000000000000000e+01
3.700000000000000000e+01
3.800000000000000000e+01
3.900000000000000000e+01
4.000000000000000000e+01
4.100000000000000000e+01
4.200000000000000000e+01
4.300000000000000000e+01
4.400000000000000000e+01
4.500000000000000000e+01
4.600000000000000000e+01
4.700000000000000000e+01
4.800000000000000000e+01
4.900000000000000000e+01
5.000000000000000000e+01
5.100000000000000000e+01
5.200000000000000000e+01
5.300000000000000000e+01
5.400000000000000000e+01
5.500000000000000000e+01
5.600000000000000000e+01
5.700000000000000000e+01
5.800000000000000000e+01
5.900000000000000000e+01
6.000000000000000000e+01
6.100000000000000000e+01
6.200000000000000000e+01
6.300000000000000000e+01
6.400000000000000000e+01
6.500000000000000000e+01
6.600000000000000000e+01
6.700000000000000000e+01
6.800000000000000000e+01
6.900000000000000000e+01
7.000000000000000000e+01
7.100000000000000000e+01
7.200000000000000000e+01
7.300000000000000000e+01
7.400000000000000000e+01
7.500000000000000000e+01
7.600000000000000000e+01
7.700000000000000000e+01
7.800000000000000000e+01
7.900000000000000000e+01
8.000000000000000000e+01
8.100000000000000000e+01
8.200000000000000000e+01
8.300000000000000000e+01
8.400000000000000000e+01
8.500000000000000000e+01
8.600000000000000000e+01
8.700000000000000000e+01
8.800000000000000000e+01
8.900000000000000000e+01
9.000000000000000000e+01
9.100000000000000000e+01
9.200000000000000000e+01
9.300000000000000000e+01
9.400000000000000000e+01
9.500000000000000000e+01
9.600000000000000000e+01
9.700000000000000000e+01
9.800000000000000000e+01
9.900000000000000000e+01
1.000000000000000000e+02
1.010000000000000000e+02
1.020000000000000000e+02
1.030000000000000000e+02
1.040000000000000000e+02
1.050000000000000000e+02
1.060000000000000000e+02
1.070000000000000000e+02
1.080000000000000000e+02
1.090000000000000000e+02
1.100000000000000000e+02
1.110000000000000000e+02
1.120000000000000000e+02
1.130000000000000000e+02
1.140000000000000000e+02
1.150000000000000000e+02
1.160000000000000000e+02
1.170000000000000000e+02
1.180000000000000000e+02
1.190000000000000000e+02
1.200000000000000000e+02
1.210000000000000000e+02
1.220000000000000000e+02
1.230000000000000000e+02
1.240000000000000000e+02
1.250000000000000000e+02
1.260000000000000000e+02
1.270000000000000000e+02
1.280000000000000000e+02
1.290000000000000000e+02
1.300000000000000000e+02
1.310000000000000000e+02
1.320000000000000000e+02
1.330000000000000000e+02
1.340000000000000000e+02
1.350000000000000000e+02
1.360000000000000000e+02
1.370000000000000000e+02
1.380000000000000000e+02
1.390000000000000000e+02
1.400000000000000000e+02
1.410000000000000000e+02
1.420000000000000000e+02
1.430000000000000000e+02
1.440000000000000000e+02
1.450000000000000000e+02
1.460000000000000000e+02
1.470000000000000000e+02
1.480000000000000000e+02
1.490000000000000000e+02
1.500000000000000000e+02
1.510000000000000000e+02
1.520000000000000000e+02
1.530000000000000000e+02
1.540000000000000000e+02
1.550000000000000000e+02
1.560000000000000000e+02
1.570000000000000000e+02
1.580000000000000000e+02
1.590000000000000000e+02
1.600000000000000000e+02
1.610000000000000000e+02
1.620000000000000000e+02
1.630000000000000000e+02
1.640000000000000000e+02
1.650000000000000000e+02
1.660000000000000000e+02
1.670000000000000000e+02
1.680000000000000000e+02
1.690000000000000000e+02
1.700000000000000000e+02
1.710000000000000000e+02
1.720000000000000000e+02
1.730000000000000000e+02
1.740000000000000000e+02
1.750000000000000000e+02
1.760000000000000000e+02
1.770000000000000000e+02
1.780000000000000000e+02
1.790000000000000000e+02
1.800000000000000000e+02
1.810000000000000000e+02
1.820000000000000000e+02
1.830000000000000000e+02
1.840000000000000000e+02
1.850000000000000000e+02
1.860000000000000000e+02
1.870000000000000000e+02
1.880000000000000000e+02
1.890000000000000000e+02
1.900000000000000000e+02
1.910000000000000000e+02
1.920000000000000000e+02
1.930000000000000000e+02
1.940000000000000000e+02
1.950000000000000000e+02
1.960000000000000000e+02
1.970000000000000000e+02
1.980000000000000000e+02
1.990000000000000000e+02
2.000000000000000000e+02
2.010000000000000000e+02
2.020000000000000000e+02
2.030000000000000000e+02
2.040000000000000000e+02
2.050000000000000000e+02
2.060000000000000000e+02
2.070000000000000000e+02
2.080000000000000000e+02
2.090000000000000000e+02
2.100000000000000000e+02
2.110000000000000000e+02
2.120000000000000000e+02
2.130000000000000000e+02
2.140000000000000000e+02
2.150000000000000000e+02
2.160000000000000000e+02
2.170000000000000000e+02
2.180000000000000000e+02
2.190000000000000000e+02
2.200000000000000000e+02
2.210000000000000000e+02
2.220000000000000000e+02
2.230000000000000000e+02
2.240000000000000000e+02
2.250000000000000000e+02
2.260000000000000000e+02
2.270000000000000000e+02
2.280000000000000000e+02
2.290000000000000000e+02
2.300000000000000000e+02
2.310000000000000000e+02
2.320000000000000000e+02
2.330000000000000000e+02
2.340000000000000000e+02
2.350000000000000000e+02
2.360000000000000000e+02
2.370000000000000000e+02
2.380000000000000000e+02
2.390000000000000000e+02
2.400000000000000000e+02
2.410000000000000000e+02
2.420000000000000000e+02
2.430000000000000000e+02
2.440000000000000000e+02
2.450000000000000000e+02
2.460000000000000000e+02
2.470000000000000000e+02
2.480000000000000000e+02
2.490000000000000000e+02
2.500000000000000000e+02
2.510000000000000000e+02
2.520000000000000000e+02
2.530000000000000000e+02
2.540000000000000000e+02
2.550000000000000000e+02
2.560000000000000000e+02
2.570000000000000000e+02
2.580000000000000000e+02
2.590000000000000000e+02
2.600000000000000000e+02
2.610000000000000000e+02
2.620000000000000000e+02
2.630000000000000000e+02
2.640000000000000000e+02
2.650000000000000000e+02
2.660000000000000000e+02
2.670000000000000000e+02
2.680000000000000000e+02
2.690000000000000000e+02
2.700000000000000000e+02
2.710000000000000000e+02
2.720000000000000000e+02
2.730000000000000000e+02
2.740000000000000000e+02
2.750000000000000000e+02
2.760000000000000000e+02
2.770000000000000000e+02
2.780000000000000000e+02
2.790000000000000000e+02
2.800000000000000000e+02
2.810000000000000000e+02
2.820000000000000000e+02
2.830000000000000000e+02
2.840000000000000000e+02
2.850000000000000000e+02
2.860000000000000000e+02
2.870000000000000000e+02
2.880000000000000000e+02
2.890000000000000000e+02
2.900000000000000000e+02
2.910000000000000000e+02
2.920000000000000000e+02
2.930000000000000000e+02
2.940000000000000000e+02
2.950000000000000000e+02
2.960000000000000000e+02
2.970000000000000000e+02
2.980000000000000000e+02
2.990000000000000000e+02
3.000000000000000000e+02
3.010000000000000000e+02
3.020000000000000000e+02
3.030000000000000000e+02
3.040000000000000000e+02
3.050000000000000000e+02
3.060000000000000000e+02
3.070000000000000000e+02
3.080000000000000000e+02
3.090000000000000000e+02
3.100000000000000000e+02
3.110000000000000000e+02
3.120000000000000000e+02
3.130000000000000000e+02
3.140000000000000000e+02
3.150000000000000000e+02
3.160000000000000000e+02
3.170000000000000000e+02
3.180000000000000000e+02
3.190000000000000000e+02
3.200000000000000000e+02
3.210000000000000000e+02
3.220000000000000000e+02
3.230000000000000000e+02
3.240000000000000000e+02
3.250000000000000000e+02
3.260000000000000000e+02
3.270000000000000000e+02
3.280000000000000000e+02
3.290000000000000000e+02
3.300000000000000000e+02
3.310000000000000000e+02
3.320000000000000000e+02
3.330000000000000000e+02
3.340000000000000000e+02
3.350000000000000000e+02
3.360000000000000000e+02
3.370000000000000000e+02
3.380000000000000000e+02
3.390000000000000000e+02
3.400000000000000000e+02
3.410000000000000000e+02
3.420000000000000000e+02
3.430000000000000000e+02
3.440000000000000000e+02
3.450000000000000000e+02
3.460000000000000000e+02
3.470000000000000000e+02
3.480000000000000000e+02
3.490000000000000000e+02
3.500000000000000000e+02
3.510000000000000000e+02
3.520000000000000000e+02
3.530000000000000000e+02
3.540000000000000000e+02
3.550000000000000000e+02
3.560000000000000000e+02
3.570000000000000000e+02
3.580000000000000000e+02
3.590000000000000000e+02
3.600000000000000000e+02
3.610000000000000000e+02
3.620000000000000000e+02
3.630000000000000000e+02
3.640000000000000000e+02
3.650000000000000000e+02
3.660000000000000000e+02
3.670000000000000000e+02
3.680000000000000000e+02
3.690000000000000000e+02
3.700000000000000000e+02
3.710000000000000000e+02
3.720000000000000000e+02
3.730000000000000000e+02
3.740000000000000000e+02
3.750000000000000000e+02
3.760000000000000000e+02
3.770000000000000000e+02
3.780000000000000000e+02
3.790000000000000000e+02
3.800000000000000000e+02
3.810000000000000000e+02
3.820000000000000000e+02
3.830000000000000000e+02
3.840000000000000000e+02
3.850000000000000000e+02
3.860000000000000000e+02
3.870000000000000000e+02
3.880000000000000000e+02
3.890000000000000000e+02
3.900000000000000000e+02
3.910000000000000000e+02
3.920000000000000000e+02
3.930000000000000000e+02
3.940000000000000000e+02
3.950000000000000000e+02
3.960000000000000000e+02
3.970000000000000000e+02
3.980000000000000000e+02
3.990000000000000000e+02
4.000000000000000000e+02
4.010000000000000000e+02
4.020000000000000000e+02
4.030000000000000000e+02
4.040000000000000000e+02
4.050000000000000000e+02
4.060000000000000000e+02
4.070000000000000000e+02
4.080000000000000000e+02
4.090000000000000000e+02
4.100000000000000000e+02
4.110000000000000000e+02
4.120000000000000000e+02
4.130000000000000000e+02
4.140000000000000000e+02
4.150000000000000000e+02
4.160000000000000000e+02
4.170000000000000000e+02
4.180000000000000000e+02
4.190000000000000000e+02
4.200000000000000000e+02
4.210000000000000000e+02
4.220000000000000000e+02
4.230000000000000000e+02
4.240000000000000000e+02
4.250000000000000000e+02
4.260000000000000000e+02
4.270000000000000000e+02
4.280000000000000000e+02
4.290000000000000000e+02
4.300000000000000000e+02
4.310000000000000000e+02
4.320000000000000000e+02